[Molden Format]
[Title]
 Molden file created by orca_2mkl for BaseName=orca_uks

[Atoms] AU
C    1   6          0.0000000000         0.0000000000         0.0000000000 
[GTO]
  1 0
s   6 1.0 
    13575.3496820000         0.5435905310
     2035.2333680000         1.0145543947
      463.2256235900         1.7315731970
      131.2001959800         2.6910376290
       42.8530158910         3.6044547126
       15.5841857660         3.7025556986
s   2 1.0 
        6.2067138508         1.8383540830
        2.5764896527         0.5447575605
s   1 1.0 
        0.5769633942         0.4718145038
s   1 1.0 
        0.2297283136         0.2364944676
s   1 1.0 
        0.0951644400         0.1221141848
p   4 1.0 
       34.6972322440         1.3596651507
        7.9582622826         1.4512589486
        2.3780826883         1.2709231419
        0.8143320818         0.8025721189
p   1 1.0 
        0.2888754725         0.3018758868
p   1 1.0 
        0.1005682367         0.0807265016
d   1 1.0 
        1.0970000000         3.3522135855
d   1 1.0 
        0.3180000000         0.3838994974
f   1 1.0 
        0.7610000000         3.0840084332

[5D]
[7F]
[9G]
[MO]
 Sym=     1a
 Ene= -1.03026032884875E+01
 Spin= Alpha
 Occup= 1.000000
  1       0.466151015567
  2       0.610015045888
  3       0.033292510091
  4      -0.019093223478
  5       0.006573722405
  6       0.000000121883
  7      -0.000000051253
  8       0.000000128146
  9      -0.000000054915
 10       0.000000027769
 11      -0.000000060115
 12       0.000000021498
 13      -0.000000010952
 14       0.000000023204
 15       0.000281037274
 16      -0.000318435756
 17      -0.000073304647
 18      -0.000520710193
 19      -0.000253151363
 20      -0.000041584635
 21       0.000047118983
 22       0.000010846815
 23       0.000077049706
 24       0.000037458576
 25       0.000000000465
 26      -0.000000001046
 27      -0.000000000417
 28      -0.000000001074
 29      -0.000000000007
 30       0.000000000114
 31      -0.000000001386
 Sym=     1a
 Ene= -5.86015168980725E-01
 Spin= Alpha
 Occup= 1.000000
  1       0.115895927923
  2       0.250071870567
  3      -0.439031724630
  4      -0.520072588453
  5      -0.170639313568
  6      -0.000006153915
  7       0.000001908930
  8      -0.000006342295
  9      -0.000005684255
 10       0.000001883594
 11      -0.000005869295
 12      -0.000000908478
 13       0.000000258644
 14      -0.000000754838
 15      -0.002916456547
 16       0.003304544309
 17       0.000760719423
 18       0.005403640166
 19       0.002627070497
 20      -0.003068151162
 21       0.003476330988
 22       0.000800267086
 23       0.005684533655
 24       0.002763654427
 25      -0.000000012180
 26       0.000000060722
 27       0.000000021888
 28       0.000000041025
 29      -0.000000003732
 30       0.000000014783
 31       0.000000082376
 Sym=     1a
 Ene= -2.65472790593400E-01
 Spin= Alpha
 Occup= 1.000000
  1      -0.000000680904
  2      -0.000001446456
  3       0.000002399872
  4       0.000002021610
  5       0.000003657496
  6      -0.092011633390
  7       0.478325123152
  8      -0.062506637370
  9      -0.079802371293
 10       0.414854601313
 11      -0.054212473618
 12      -0.051876434636
 13       0.269681146172
 14      -0.035241449435
 15       0.000000119612
 16      -0.000000274405
 17       0.000000826927
 18       0.000000067210
 19       0.000000823381
 20       0.000000323866
 21      -0.000000555699
 22       0.000001916298
 23       0.000000489715
 24       0.000001606012
 25      -0.000043604181
 26       0.000045625279
 27       0.000152761215
 28       0.000221194099
 29      -0.000296126651
 30      -0.000472423911
 31       0.000631122044
 Sym=     1a
 Ene= -2.65472657510090E-01
 Spin= Alpha
 Occup= 1.000000
  1      -0.000000678696
  2      -0.000001430156
  3       0.000002257907
  4       0.000001671369
  5       0.000004618922
  6       0.143399595839
  7      -0.033635418789
  8      -0.468479515539
  9       0.124371432729
 10      -0.029172224309
 11      -0.406315631734
 12       0.080849269472
 13      -0.018963790623
 14      -0.264130816447
 15      -0.000001030800
 16      -0.000000560759
 17       0.000000171071
 18       0.000000199167
 19      -0.000000135238
 20      -0.000002315281
 21      -0.000000942794
 22       0.000000578489
 23       0.000000447170
 24      -0.000000282672
 25      -0.000326811890
 26       0.000579200294
 27       0.000114357766
 28       0.000446930548
 29       0.000271144608
 30       0.000232529879
 31       0.000052519778
 Sym=     1a
 Ene= -1.53069981420348E-01
 Spin= Alpha
 Occup= 0.000000
  1       0.000001140245
  2       0.000002373434
  3      -0.000003634455
  4      -0.000002701977
  5      -0.000008223519
  6       0.417047853584
  7       0.096005428552
  8       0.120763612844
  9       0.374433461349
 10       0.086195426249
 11       0.108423912404
 12       0.339344291475
 13       0.078117900134
 14       0.098263184593
 15      -0.000000251746
 16       0.000000941835
 17       0.000000121719
 18       0.000000900876
 19       0.000000076471
 20      -0.000000560020
 21       0.000002197378
 22       0.000000250938
 23       0.000002126159
 24       0.000000072884
 25       0.001522006946
 26       0.001544310923
 27       0.000355502040
 28      -0.001866203914
 29      -0.000907287308
 30       0.002336617667
 31       0.001884821650
 Sym=     1a
 Ene= 1.39660871882646E-01
 Spin= Alpha
 Occup= 0.000000
  1       0.057549605156
  2       0.111824041906
  3       0.025417561979
  4      -1.809316542068
  5       2.059404559189
  6      -0.000003804931
  7       0.000001355802
  8      -0.000003665240
  9      -0.000008191071
 10       0.000002912979
 11      -0.000008159207
 12       0.000017804097
 13      -0.000006468364
 14       0.000018738865
 15      -0.001193337967
 16       0.001352129521
 17       0.000311264314
 18       0.002211018813
 19       0.001074922449
 20      -0.000878566557
 21       0.000995518154
 22       0.000229187535
 23       0.001627940659
 24       0.000791451604
 25      -0.000000001835
 26       0.000000011194
 27       0.000000004494
 28       0.000000006662
 29      -0.000000002076
 30       0.000000002051
 31       0.000000016782
 Sym=     1a
 Ene= 2.18085560435478E-01
 Spin= Alpha
 Occup= 0.000000
  1       0.000000418598
  2       0.000000766468
  3       0.000000901894
  4      -0.000013886683
  5       0.000014179287
  6       0.075826140359
  7      -0.285894510545
  8      -0.034580800485
  9       0.180642198428
 10      -0.681092744605
 11      -0.082382614682
 12      -0.326408960985
 13       1.230690036966
 14       0.148859763904
 15      -0.000000304303
 16       0.000000098548
 17      -0.000000602803
 18      -0.000000033340
 19      -0.000000659851
 20      -0.000000172077
 21       0.000000088803
 22      -0.000000373646
 23       0.000000021976
 24      -0.000000304362
 25      -0.000021559204
 26       0.000054807078
 27      -0.000064580845
 28      -0.000055266073
 29       0.000192201127
 30       0.000279425499
 31      -0.000323926953
 Sym=     1a
 Ene= 2.18085581250911E-01
 Spin= Alpha
 Occup= 0.000000
  1       0.000000737610
  2       0.000001346044
  3       0.000001632972
  4      -0.000024187687
  5       0.000024375248
  6      -0.070178067741
  7      -0.053025881388
  8       0.284507419649
  9      -0.167186760689
 10      -0.126324720355
 11       0.677788245324
 12       0.302095205181
 13       0.228260507861
 14      -1.224718530519
 15       0.000000772960
 16       0.000000473927
 17      -0.000000314177
 18      -0.000000174478
 19      -0.000000057970
 20       0.000000439010
 21       0.000000257279
 22      -0.000000149578
 23      -0.000000027462
 24      -0.000000004202
 25       0.000177354628
 26      -0.000310031280
 27      -0.000080755820
 28      -0.000264515246
 29      -0.000101972682
 30      -0.000057751839
 31      -0.000113354450
 Sym=     1a
 Ene= 2.33448842865574E-01
 Spin= Alpha
 Occup= 0.000000
  1      -0.000001083720
  2      -0.000001956740
  3      -0.000002495806
  4       0.000034346649
  5      -0.000033461659
  6      -0.295699018013
  7      -0.068069691952
  8      -0.085625279431
  9      -0.719528159223
 10      -0.165634928552
 11      -0.208353048057
 12       1.190145450194
 13       0.273970380497
 14       0.344629305489
 15       0.000000218898
 16      -0.000000874336
 17      -0.000000107313
 18      -0.000000824634
 19      -0.000000043616
 20       0.000000208364
 21      -0.000000879930
 22      -0.000000124158
 23      -0.000000790800
 24      -0.000000086817
 25      -0.000892737803
 26      -0.000905815945
 27      -0.000208518875
 28       0.001094631669
 29       0.000532172138
 30      -0.001370556701
 31      -0.001105547792
 Sym=     1a
 Ene= 6.52709177156554E-01
 Spin= Alpha
 Occup= 0.000000
  1       0.000000001485
  2       0.000000006537
  3      -0.000000063384
  4       0.000000138720
  5      -0.000000104037
  6       0.000000264340
  7      -0.000002368512
  8       0.000000966302
  9      -0.000000004261
 10       0.000000307612
 11      -0.000000228287
 12       0.000000028166
 13      -0.000000509314
 14       0.000000305909
 15      -0.001060629577
 16       0.001452517036
 17      -0.004769163997
 18      -0.001252033694
 19       0.000951766797
 20       0.199398951842
 21      -0.273073854151
 22       0.896607398672
 23       0.235386122998
 24      -0.178935368571
 25       0.000000591308
 26      -0.000000191003
 27       0.000000887747
 28       0.000000281236
 29       0.000000593717
 30      -0.000000158594
 31       0.000000272980
 Sym=     1a
 Ene= 6.52709177255582E-01
 Spin= Alpha
 Occup= 0.000000
  1       0.000000011228
  2       0.000000032557
  3      -0.000000203251
  4       0.000000319810
  5      -0.000000233096
  6       0.000000799830
  7      -0.000000847698
  8      -0.000002196737
  9      -0.000000122319
 10       0.000000215696
 11       0.000000287913
 12       0.000000185236
 13      -0.000000284343
 14      -0.000000456695
 15      -0.004145282016
 16       0.001030774118
 17       0.001543102405
 18      -0.002338115674
 19      -0.001536002990
 20       0.779314584075
 21      -0.193787587694
 22      -0.290105220933
 23       0.439571989440
 24       0.288771828406
 25       0.000000910546
 26       0.000000344453
 27      -0.000000681681
 28       0.000000113981
 29       0.000000073534
 30      -0.000000513683
 31      -0.000000087806
 Sym=     1a
 Ene= 6.56193992351018E-01
 Spin= Alpha
 Occup= 0.000000
  1      -0.000000008068
  2      -0.000000022579
  3       0.000000134688
  4      -0.000000173901
  5       0.000000093614
  6       0.000000796171
  7       0.000000174033
  8       0.000003077762
  9       0.000000109208
 10       0.000000024541
 11      -0.000000341729
 12      -0.000000047734
 13      -0.000000013026
 14       0.000000523242
 15       0.003993381845
 16       0.007328392934
 17       0.001686037910
 18      -0.002072040633
 19      -0.001011155582
 20      -0.454819496842
 21      -0.834656844293
 22      -0.192029315597
 23       0.235993525061
 24       0.115165190348
 25      -0.000000003113
 26      -0.000001326475
 27      -0.000000118095
 28      -0.000000542355
 29       0.000000153617
 30      -0.000000306001
 31      -0.000000069042
 Sym=     1a
 Ene= 6.56194039834151E-01
 Spin= Alpha
 Occup= 0.000000
  1      -0.000000004137
  2      -0.000000011260
  3       0.000000067109
  4      -0.000000081782
  5       0.000000038363
  6       0.000001818604
  7      -0.000002319532
  8       0.000000360353
  9      -0.000000209776
 10       0.000000326305
 11      -0.000000036157
 12       0.000000332471
 13      -0.000000436624
 14       0.000000065436
 15      -0.000001601552
 16       0.000534472042
 17      -0.002335218001
 18       0.003712743787
 19      -0.007634595050
 20       0.000181509158
 21      -0.060872406166
 22       0.265965733847
 23      -0.422858905486
 24       0.869534993458
 25       0.000000085065
 26       0.000000108123
 27       0.000000082595
 28      -0.000000308277
 29       0.000000940283
 30       0.000000131383
 31      -0.000001026956
 Sym=     1a
 Ene= 6.64611614203652E-01
 Spin= Alpha
 Occup= 0.000000
  1       0.000879673218
  2       0.001149469649
  3       0.008994053015
  4      -0.032408323936
  5       0.014224018268
  6       0.000003600447
  7       0.000001841585
  8      -0.000000256222
  9       0.000000093353
 10      -0.000000252029
 11       0.000000290659
 12       0.000000315429
 13       0.000000423169
 14      -0.000000282854
 15      -0.004648007518
 16       0.005266480732
 17       0.001212351360
 18       0.008611795720
 19       0.004186777569
 20       0.391779906927
 21      -0.443911171007
 22      -0.102189402377
 23      -0.725890007683
 24      -0.352904968069
 25       0.000000704558
 26       0.000000141854
 27      -0.000000038083
 28      -0.000001002349
 29      -0.000000280636
 30       0.000000906299
 31       0.000000211174
 Sym=     1a
 Ene= 1.19653715020139E+00
 Spin= Alpha
 Occup= 0.000000
  1       0.133217336695
  2       0.405969776627
  3      -2.866843961180
  4       3.933818353857
  5      -1.690974383526
  6      -0.000017593738
  7       0.000006834986
  8      -0.000019132162
  9       0.000025439225
 10      -0.000009836226
 11       0.000027794123
 12      -0.000012371130
 13       0.000004790753
 14      -0.000013509461
 15      -0.003532236159
 16       0.004002274015
 17       0.000921334351
 18       0.006544569397
 19       0.003181741512
 20       0.003751568391
 21      -0.004250878760
 22      -0.000978561786
 23      -0.006951093972
 24      -0.003379366867
 25      -0.000000017192
 26      -0.000000021498
 27      -0.000000003579
 28       0.000000015540
 29       0.000000004895
 30      -0.000000035483
 31      -0.000000027201
 Sym=     1a
 Ene= 1.34645968362886E+00
 Spin= Alpha
 Occup= 0.000000
  1      -0.000001238359
  2      -0.000003844295
  3       0.000026897215
  4      -0.000036273740
  5       0.000015213357
  6      -0.259579403964
  7       1.215350565545
  8      -0.069742341883
  9       0.356744405338
 10      -1.670276823930
 11       0.095848093529
 12      -0.165611602158
 13       0.775393179401
 14      -0.044495603722
 15       0.000000283587
 16      -0.000000319569
 17       0.000001059829
 18       0.000000063415
 19       0.000001071065
 20       0.000000107476
 21      -0.000000066736
 22       0.000000524717
 23       0.000000281903
 24       0.000000496675
 25      -0.000052881461
 26       0.000006765050
 27       0.000396217021
 28       0.000516161237
 29      -0.000869058420
 30      -0.001345447703
 31       0.001723082321
 Sym=     1a
 Ene= 1.34645978131905E+00
 Spin= Alpha
 Occup= 0.000000
  1      -0.000001488871
  2      -0.000004599022
  3       0.000032067394
  4      -0.000043141349
  5       0.000018097621
  6       0.345125008495
  7       0.005086781010
  8      -1.195903648491
  9      -0.474311071811
 10      -0.006990850431
 11       1.643550377306
 12       0.220189579483
 13       0.003245365817
 14      -0.762985951464
 15      -0.000001316181
 16      -0.000000766431
 17       0.000000323178
 18       0.000000227414
 19      -0.000000121763
 20      -0.000000685488
 21      -0.000000181306
 22       0.000000263894
 23       0.000000259591
 24       0.000000004397
 25      -0.000906697605
 26       0.001600537114
 27       0.000345434184
 28       0.001273093135
 29       0.000684253112
 30       0.000542087183
 31       0.000273497608
 Sym=     1a
 Ene= 1.37246970407220E+00
 Spin= Alpha
 Occup= 0.000000
  1      -0.000002251061
  2      -0.000006913952
  3       0.000047805728
  4      -0.000063798024
  5       0.000026661956
  6      -1.179656089140
  7      -0.271557717996
  8      -0.341591218158
  9       1.586955329050
 10       0.365318269199
 11       0.459532224314
 12      -0.732162036799
 13      -0.168544206289
 14      -0.212011051764
 15       0.000000340215
 16      -0.000001395260
 17      -0.000000171410
 18      -0.000001300577
 19      -0.000000060764
 20       0.000000047070
 21      -0.000000410901
 22      -0.000000019825
 23      -0.000000368744
 24       0.000000097595
 25      -0.000924924424
 26      -0.000938448900
 27      -0.000216027461
 28       0.001134117383
 29       0.000551351180
 30      -0.001419991803
 31      -0.001145393734
 Sym=     1a
 Ene= 2.63229140150910E+00
 Spin= Alpha
 Occup= 0.000000
  1       0.000000001013
  2       0.000000000504
  3       0.000000010870
  4      -0.000000031886
  5       0.000000011655
  6       0.000000023080
  7       0.000000006987
  8       0.000000020522
  9      -0.000000028285
 10      -0.000000009122
 11      -0.000000036151
 12       0.000000008996
 13       0.000000003082
 14       0.000000013566
 15       0.000008415187
 16       0.000002802293
 17      -0.000000682365
 18       0.000001234835
 19       0.000003501172
 20      -0.000005391621
 21      -0.000001830876
 22       0.000000413735
 23      -0.000000757903
 24      -0.000002262330
 25       0.471379579744
 26       0.582116901718
 27       0.027035269390
 28       0.001993182118
 29      -0.238118495374
 30      -0.425930271904
 31      -0.447313437689
 Sym=     1a
 Ene= 2.63229140418643E+00
 Spin= Alpha
 Occup= 0.000000
  1       0.000000000028
  2       0.000000000014
  3       0.000000000518
  4      -0.000000001327
  5       0.000000000477
  6       0.000000004648
  7       0.000000016808
  8       0.000000001298
  9       0.000000002848
 10      -0.000000029456
 11       0.000000001749
 12      -0.000000002237
 13       0.000000011665
 14      -0.000000001274
 15       0.000000589273
 16      -0.000004238170
 17       0.000007929287
 18       0.000000070766
 19       0.000003544580
 20      -0.000000357330
 21       0.000002740727
 22      -0.000005065990
 23      -0.000000028158
 24      -0.000002320001
 25       0.122871556099
 26       0.055922243508
 27       0.423244330079
 28      -0.384671105849
 29       0.730231178821
 30      -0.318719368109
 31       0.140883109584
 Sym=     1a
 Ene= 2.63489584467310E+00
 Spin= Alpha
 Occup= 0.000000
  1       0.000000000734
  2       0.000000000290
  3       0.000000010789
  4      -0.000000029185
  5       0.000000010242
  6      -0.000000001254
  7       0.000000012712
  8      -0.000000004264
  9      -0.000000000047
 10      -0.000000015507
 11       0.000000013524
 12      -0.000000000035
 13       0.000000003735
 14      -0.000000003194
 15      -0.000006232522
 16       0.000001810155
 17       0.000001025916
 18      -0.000003701680
 19      -0.000001969342
 20       0.000004049809
 21      -0.000001175894
 22      -0.000000653843
 23       0.000002410021
 24       0.000001276808
 25      -0.530145839088
 26       0.046001808645
 27       0.616932743538
 28      -0.335914304546
 29      -0.397832661142
 30       0.004102560570
 31      -0.255141403014
 Sym=     1a
 Ene= 2.63489584628790E+00
 Spin= Alpha
 Occup= 0.000000
  1       0.000000000373
  2       0.000000000166
  3       0.000000005199
  4      -0.000000014293
  5       0.000000005038
  6       0.000000002407
  7      -0.000000002613
  8      -0.000000013213
  9      -0.000000004676
 10       0.000000012073
 11       0.000000015665
 12       0.000000000723
 13      -0.000000002640
 14      -0.000000003961
 15      -0.000000491786
 16       0.000001816328
 17      -0.000007262991
 18      -0.000001215564
 19       0.000001727375
 20       0.000000308767
 21      -0.000001175444
 22       0.000004721805
 23       0.000000783864
 24      -0.000001123502
 25      -0.464325544452
 26       0.307734802694
 27      -0.621454398447
 28      -0.480272733323
 29       0.034276877661
 30      -0.251225370606
 31       0.092436578444
 Sym=     1a
 Ene= 2.63738843597083E+00
 Spin= Alpha
 Occup= 0.000000
  1       0.000000010078
  2       0.000000019832
  3      -0.000000045634
  4      -0.000000053556
  5       0.000000014570
  6      -0.000694890261
  7       0.003526746993
  8      -0.000404059556
  9       0.000664388133
 10      -0.003371811425
 11       0.000386314148
 12      -0.000301345762
 13       0.001529362933
 14      -0.000175220732
 15       0.000000069943
 16      -0.000002715111
 17       0.000000483341
 18      -0.000007683993
 19       0.000008131023
 20      -0.000000056535
 21       0.000001749670
 22      -0.000000264062
 23       0.000004962620
 24      -0.000005151251
 25       0.043175530033
 26      -0.040817733451
 27      -0.170231184202
 28      -0.241315472957
 29       0.339088735219
 30       0.537261327265
 31      -0.711069681267
 Sym=     1a
 Ene= 2.63738845527230E+00
 Spin= Alpha
 Occup= 0.000000
  1       0.000000009328
  2       0.000000017823
  3      -0.000000019950
  4      -0.000000097503
  5       0.000000029404
  6       0.001045017004
  7      -0.000190235369
  8      -0.003457729168
  9      -0.000999091756
 10       0.000181883156
 11       0.003305824580
 12       0.000453163620
 13      -0.000082496884
 14      -0.001499432648
 15      -0.000001739804
 16      -0.000010834572
 17      -0.000003894203
 18       0.000000790696
 19      -0.000000602267
 20       0.000001059307
 21       0.000006928808
 22       0.000002507053
 23      -0.000000478915
 24       0.000000387975
 25       0.369494909602
 26      -0.654293211995
 27      -0.131826041484
 28      -0.508290670592
 29      -0.300450460831
 30      -0.253645870905
 31      -0.070871075075
 Sym=     1a
 Ene= 2.64369536433966E+00
 Spin= Alpha
 Occup= 0.000000
  1      -0.000000005699
  2       0.000000030980
  3      -0.000000265804
  4       0.000000454719
  5      -0.000000190054
  6      -0.005569244913
  7      -0.001282017151
  8      -0.001612685586
  9       0.000715327895
 10       0.000164640053
 11       0.000207133970
 12      -0.000367189105
 13      -0.000084514664
 14      -0.000106326021
 15       0.000006417722
 16      -0.000001677788
 17      -0.000001231503
 18      -0.000008131215
 19      -0.000007162009
 20      -0.000004122510
 21       0.000001040443
 22       0.000000790498
 23       0.000005191829
 24       0.000004613999
 25       0.357289100549
 26       0.362523048875
 27       0.083453283720
 28      -0.438090298639
 29      -0.212983062249
 30       0.548518523864
 31       0.442457377589
 Sym=     1a
 Ene= 2.87771041156611E+00
 Spin= Alpha
 Occup= 0.000000
  1      -0.000000003423
  2      -0.000000014074
  3       0.000000073776
  4      -0.000000072273
  5       0.000000032996
  6       0.000000453565
  7      -0.000000303032
  8      -0.000001350056
  9      -0.000000243081
 10       0.000000165587
 11       0.000000714466
 12       0.000000056342
 13      -0.000000034752
 14      -0.000000165901
 15       0.885973072460
 16      -0.191285618519
 17      -0.455908142741
 18       0.483772701310
 19       0.361134067814
 20      -0.467572731874
 21       0.100951080312
 22       0.240605751004
 23      -0.255311289485
 24      -0.190588688016
 25      -0.000006148689
 26      -0.000002894150
 27       0.000005348742
 28      -0.000000681221
 29       0.000000118154
 30       0.000003636586
 31       0.000001123478
 Sym=     1a
 Ene= 2.87771041385009E+00
 Spin= Alpha
 Occup= 0.000000
  1      -0.000000004036
  2      -0.000000011996
  3       0.000000062725
  4      -0.000000056974
  5       0.000000024813
  6       0.000000212203
  7      -0.000001409057
  8       0.000000383913
  9      -0.000000110166
 10       0.000000741682
 11      -0.000000208283
 12       0.000000026464
 13      -0.000000171097
 14       0.000000044806
 15       0.334536316653
 16      -0.344693644640
 17       1.011437953896
 18       0.332522075898
 19      -0.171868053182
 20      -0.176551709730
 21       0.181912241614
 22      -0.533786888156
 23      -0.175488694028
 24       0.090703453588
 25      -0.000004857566
 26       0.000000993554
 27      -0.000005928156
 28      -0.000001739223
 29      -0.000004589152
 30       0.000001676162
 31      -0.000001793493
 Sym=     1a
 Ene= 2.88934031816184E+00
 Spin= Alpha
 Occup= 0.000000
  1      -0.000000005517
  2      -0.000000013518
  3       0.000000066615
  4      -0.000000049195
  5       0.000000019901
  6       0.000001146638
  7      -0.000001674919
  8       0.000000176893
  9      -0.000000626503
 10       0.000000885555
 11      -0.000000098614
 12       0.000000148170
 13      -0.000000226152
 14       0.000000021909
 15       0.009311294470
 16      -0.054822711992
 17       0.316340549523
 18      -0.501551183642
 19       1.019351768866
 20      -0.004890746962
 21       0.028795566528
 22      -0.166157487387
 23       0.263439157449
 24      -0.535413283971
 25      -0.000000516266
 26      -0.000000872415
 27      -0.000000423060
 28       0.000002190503
 29      -0.000006761059
 30      -0.000001480747
 31       0.000007572987
 Sym=     1a
 Ene= 2.88934045571855E+00
 Spin= Alpha
 Occup= 0.000000
  1      -0.000000004035
  2      -0.000000008425
  3       0.000000041822
  4      -0.000000028689
  5       0.000000009961
  6       0.000000511503
  7       0.000000081823
  8       0.000002128328
  9      -0.000000293201
 10      -0.000000048891
 11      -0.000001132327
 12       0.000000067329
 13       0.000000010878
 14       0.000000283435
 15      -0.534389249842
 16      -0.981889275693
 17      -0.220301529154
 18       0.268820053967
 19       0.152708172515
 20       0.280687294373
 21       0.515736135130
 22       0.115713109547
 23      -0.141197400158
 24      -0.080209781538
 25      -0.000000257449
 26       0.000009666062
 27       0.000000986404
 28       0.000004112224
 29      -0.000000890773
 30       0.000002220170
 31       0.000000761540
 Sym=     1a
 Ene= 2.90919684981573E+00
 Spin= Alpha
 Occup= 0.000000
  1       0.001579456763
  2       0.004699382383
  3      -0.024730398337
  4       0.021960713991
  5      -0.008606958094
  6       0.000002382231
  7       0.000001078236
  8       0.000000002057
  9      -0.000001160989
 10      -0.000000536725
 11       0.000000006898
 12       0.000000269401
 13       0.000000117865
 14       0.000000005501
 15       0.459644704283
 16      -0.520810194571
 17      -0.119889550265
 18      -0.851628890238
 19      -0.414029463135
 20      -0.240418866766
 21       0.272411708273
 22       0.062708672928
 23       0.445447660304
 24       0.216559645981
 25      -0.000004956299
 26      -0.000001172886
 27       0.000000182862
 28       0.000006931956
 29       0.000002064348
 30      -0.000006312436
 31      -0.000001812901
 Sym=     1a
 Ene= 2.11416703278047E+01
 Spin= Alpha
 Occup= 0.000000
  1      -1.376267086919
  2       1.661688405869
  3      -1.307856372585
  4       1.133656953120
  5      -0.416132070041
  6      -0.000000005681
  7       0.000000006932
  8      -0.000000009434
  9       0.000000038095
 10      -0.000000014016
 11       0.000000038182
 12      -0.000000020927
 13       0.000000007776
 14      -0.000000021138
 15      -0.000017680433
 16       0.000020034448
 17       0.000004611629
 18       0.000032760275
 19       0.000015926488
 20       0.000028455854
 21      -0.000032243062
 22      -0.000007422348
 23      -0.000052724236
 24      -0.000025632610
 25      -0.000000001788
 26      -0.000000002474
 27      -0.000000000680
 28       0.000000001881
 29       0.000000001211
 30      -0.000000003038
 31      -0.000000003404
 Sym=     1a
 Ene= -1.02734417515017E+01
 Spin=Beta
 Occup= 1.000000
  1      -0.467334855918
  2      -0.610163351300
  3      -0.029582498086
  4       0.016984256370
  5      -0.005742254557
  6      -0.000000048445
  7       0.000000037574
  8      -0.000000056941
  9       0.000000050476
 10      -0.000000026866
 11       0.000000054016
 12      -0.000000020550
 13       0.000000010773
 14      -0.000000021883
 15       0.000263531425
 16      -0.000298598514
 17      -0.000068738625
 18      -0.000488272279
 19      -0.000237382589
 20      -0.000084961057
 21       0.000096266577
 22       0.000022160962
 23       0.000157416373
 24       0.000076530874
 25      -0.000000000335
 26      -0.000000000338
 27      -0.000000000064
 28       0.000000000291
 29       0.000000000132
 30      -0.000000000577
 31      -0.000000000534
 Sym=     1a
 Ene= -4.76022773572134E-01
 Spin=Beta
 Occup= 1.000000
  1       0.111573885636
  2       0.237645566805
  3      -0.403102463603
  4      -0.490331479404
  5      -0.238693811872
  6       0.000005548942
  7      -0.000000539124
  8       0.000004552484
  9       0.000004816658
 10      -0.000000261425
 11       0.000003501651
 12       0.000001196187
 13      -0.000000198331
 14       0.000000914220
 15       0.004218676191
 16      -0.004780020441
 17      -0.001100383592
 18      -0.007816361992
 19      -0.003800070488
 20       0.008012640120
 21      -0.009078738096
 22      -0.002089965718
 23      -0.014845666392
 24      -0.007217509969
 25      -0.000000096069
 26      -0.000000051099
 27      -0.000000005424
 28       0.000000116628
 29       0.000000040533
 30      -0.000000137381
 31      -0.000000079384
 Sym=     1a
 Ene= -1.23982874650711E-01
 Spin=Beta
 Occup= 0.000000
  1      -0.000000931924
  2      -0.000001841711
  3       0.000002714580
  4       0.000000400790
  5       0.000009838630
  6       0.404271555015
  7       0.093064419652
  8       0.117063819893
  9       0.347604336168
 10       0.080019475551
 11       0.100654829355
 12       0.384543450909
 13       0.088522964684
 14       0.111351184147
 15       0.000000088650
 16      -0.000000382085
 17      -0.000000063087
 18      -0.000000330533
 19      -0.000000068332
 20       0.000000181442
 21       0.000000032243
 22      -0.000000029825
 23      -0.000000191539
 24      -0.000000246174
 25      -0.003916285227
 26      -0.003973686438
 27      -0.000914751514
 28       0.004801928975
 29       0.002334554772
 30      -0.006012352375
 31      -0.004849863733
 Sym=     1a
 Ene= -7.79901860198954E-02
 Spin=Beta
 Occup= 0.000000
  1       0.000000203202